192
Lattice="13.7044938 0.0 0.0 -5.3e-07 13.7044938 0.0 -5.3e-07 -5.3e-07 13.7044938" Properties=species:S:1:pos:R:3:forces:R:3 energy=-30011.49340274 cutoff=-1.0 nneightol=1.2 pbc="T T T"
O        0.36053267      12.16991164      13.41887569      -1.64291447      -4.57499559      -4.29338264
H        0.41103364      12.71491125      12.67188914       0.57074381       2.18397746      -0.53663555
H        0.50386878      12.47783986      14.22618844       1.16273007       2.84865910       4.65609333
O        8.29284189       7.20501230       3.01451619       3.35511504      -2.69160582      -3.07500875
H        8.50901078       7.81615906       3.62957886       1.51211216       3.03877676       3.30119386
H        7.40419460       7.22353351       3.01082253      -4.88802228      -0.29535910      -0.28813995
O        6.47654696      12.50784421       4.89482569       1.20642854       0.18389200       2.97261199
H        7.06615620      12.19340711       4.25619876       2.16810861      -0.94104954      -1.26919432
H        5.72924290      12.62653865       4.40548494      -3.18736083       0.91869636      -1.96854985
O        7.35572197       3.29329732       3.39226934       0.13330862       2.83582929      -4.38437913
H        7.15156540       2.56179979       2.82965871      -0.17510499      -0.42731429      -0.78582689
H        7.35466362       2.94755410       4.19897354       0.12469131      -2.30806919       5.42389678
O       11.58130783       7.59559800       7.60962120       3.14073644       0.20032289      -2.10571822
H       11.40567391       7.12230190       6.77378579      -0.88979716       0.27547110       1.17430518
H       10.94110924       7.78033377       8.24436926      -2.12276463      -0.34142041       1.04549804
O       11.31592546      10.55253442       4.31000021      -7.24140974      -1.75366218      -0.72073169
H       11.99904032      10.13824158       3.95813440       5.13325926      -2.67798926      -2.01938571
H       11.51785948      11.25549342       4.79246165       1.87142385       4.38552584       2.88520476
O        2.74277840       8.55108037      13.24541140       1.85078304       1.81578003       0.97317804
H        3.00565247       9.51259536      12.99368180      -1.39232960      -2.91367202      -0.26245720
H        1.93044375       8.21838666      12.89578402      -0.53379705       0.76743321      -0.69209988
O        4.63021592       6.79781044      10.10035249       0.88614105       5.33946175       0.69950466
H        4.53948319       6.08072240      10.61106141      -0.47998489      -4.08783321       3.42938393
H        4.47520933       6.49141684       9.27351310      -0.60471837      -1.28920264      -4.11296832
O        6.57666728       8.78333625      11.75625382       1.38973278       1.60625054       3.18318021
H        5.72384529       8.91631848      12.17091708      -0.32576137      -0.44916044      -1.38142298
H        6.67186626       8.34433084      10.95560870      -1.13601116      -1.29758444      -1.87614440
O       12.91954408       5.65224762       2.07289826      -0.54286276       1.40442407      -1.73229631
H       12.74930777       6.26424106       1.28561486       0.92102064      -0.73610175       1.46621282
H       12.00623713       5.43036361       2.24195979      -0.34885604      -0.59421798       0.57777834
O        6.03828239       5.59652526       4.88619481       0.88445955      -2.89337059      -1.80520766
H        6.25302250       4.80433110       4.21551561      -0.74873615       2.72565237       2.12707380
H        5.15503271       5.90096090       4.65387543      -0.12861790       0.23712721      -0.42722276
O       11.38694104       0.93547947       6.80680645       1.42788796       0.08248357       0.23594553
H       12.25325705       0.61612632       7.28100215      -1.94933857       1.29497734      -0.97053495
H       11.33868008       1.90273074       6.63164880       0.62786858      -1.38419977       0.72666066
O        6.69620842       1.61020158      10.18502084      -2.95552958       0.30946314      -3.27607932
H        7.07986189       2.36596189      10.52914478       1.65207274       2.12771658       1.90971787
H        6.08760171       2.15169804       9.51540000       1.12987651      -2.56762208       1.69388402
O        2.21868129       8.80968927       9.63737535      -0.59593548       1.87340874       0.29203466
H        2.79838963       8.12911446       9.82750872       3.31873907      -1.48294042       2.45257034
H        1.88738990       8.23870706       8.99156748      -2.64923918      -0.40447827      -2.69628523
O        5.22358232       5.18174557       7.63539213      -2.10955430      -1.21813220       0.09444434
H        5.46280217       5.33198957       6.73886010       0.29583424      -0.03467030      -1.69775096
H        5.87995257       5.63065719       8.08969076       2.33390364       1.07293171       1.68911720
O        5.20740538       6.35076153       1.25093259      -2.74794384      -1.05504712       4.94019511
H        5.63060427       6.76230265       0.61389319       3.05777208       4.58782025      -4.51337138
H        5.33960972       5.53180688       0.86757545      -0.30268931      -3.48863758      -0.37784215
O        3.17931255      -0.28145084       0.68936444       1.05256857      -1.41609173       2.68969292
H        3.91633999       0.18187027       1.12913716      -0.05813162      -0.92120062       1.34736614
H        3.20127870       0.33485858       0.02999482      -1.05522709       2.07786288      -3.84201516
O        5.31061081      13.33314898       7.39228812       0.23699916       0.57426622      -1.30960178
H        5.48650931      12.90806093       6.54475790       1.42676696       2.61054922      -2.41885289
H        5.14955043      12.42645675       7.46272160      -1.60302123      -2.93238965       3.92634735
O       10.01753626       5.01091130       3.23948000      -1.45693628       0.88245923      -0.71570776
H        9.41988352       4.40296606       3.65025381       0.11526565      -1.55097182       0.58487459
H        9.24387918       5.59075722       2.99006820       1.52469514       0.56339559      -0.01501987
O        6.83548786      12.64236105      10.65307809      -1.49700950      -8.70339053      -0.10626987
H        5.34230852      11.74715197      10.34594363       3.94594430       2.54028611       0.76215731
H        6.61429178      13.49327801      10.62471419      -2.17735944       5.81218481      -0.63397238
O        8.85218220       9.03892884       5.48703849      -0.17823968       4.46814568      -4.82149755
H        9.68060913       9.55106655       5.37162494      -0.56287623      -0.97485440       0.50528094
H        8.82074908       8.42936961       6.11871733       0.70051253      -3.56673227       4.11242324
O        3.22327130       2.93632496       3.62407012       4.31028507       4.59631004       0.56606954
H        2.59914912       2.31539901       3.77848403      -3.21717534      -2.74349069       1.16082745
H        3.35484593       3.55822460       4.43476432      -0.80341837      -1.98234125      -2.23070984
O        1.00927323      12.41074019       5.59033388      -3.97917324       2.21899075      -0.69141597
H        1.75399490      11.98792760       5.32542777       3.49511161      -2.07490097      -0.79411098
H        0.91716994      12.51874526       6.51184308       0.34234035       0.02769901       1.29521902
O        9.20255044       9.81216258      11.54590587       3.36462812      -4.13321833       1.68398528
H        8.31152185       9.83121296      11.60395661      -4.83280527      -0.41340925       0.49916120
H        9.38114774      10.61735862      11.22215526       1.44677528       4.60202303      -2.00751750
O        4.02124937      10.30435030      11.54892218       1.29729648      -3.82920078       1.07461321
H        3.99964836      11.17336512      11.69857350       0.27627791       5.68321827       2.09017333
H        3.59775943      10.34403859      10.74467866      -1.62651083      -1.31193634      -3.13392816
O        9.23668237       0.38732438       1.00164779      -1.02757231       4.81345514      -7.94779468
H        9.53323327       0.25154756      -0.24010887       0.22547805      -0.71516782       5.86232133
H        9.36929417      -0.22044041       1.63577142       0.93762997      -4.16242092       2.41266168
O        7.14865493       3.99826191      11.77070035      -1.53292781       0.41736361       1.06562978
H        7.55818517       4.51092879      11.11346226       2.51293471       0.48492398      -2.37199711
H        6.45500944       4.67329624      11.80610231      -0.85884622      -0.88093714       1.07326596
O        0.16753698       9.08046925       4.10706075      -5.30326061      -1.70323256       0.25760913
H        0.87874109       9.57138695       3.99747344       4.96148899       4.22779894      -0.99744412
H        0.54146470       8.30945806       4.44990937       0.31785985      -2.41976821       0.57260014
O        1.14044039       6.44479632       4.04197195      -0.28607639       0.49830451      -0.05627991
H        1.19621037       5.56350460       4.39284290       1.13677735      -0.89977304       0.81921009
H        0.34607607       6.29064700       3.53019409      -0.56980792       0.67549056      -1.08747387
O        0.72349108       7.69079698       7.40980388       4.95966865      -1.13586204      -1.96727973
H        0.99924533       8.12779152       6.57259262      -1.08747902      -0.42498693       1.31059422
H       -0.09457032       7.90887091       7.71513913      -4.11454698       1.38098075       0.61637061
O        8.47239172      11.61792689       2.84240130      -2.26558942       5.41551499       2.29591816
H        7.76662808      11.34809943       2.33308411      -1.66319019      -1.51667330      -2.09950643
H        9.15021481      11.06149706       2.84761369       4.08143631      -3.90468324      -0.16905673
O        3.92623560      10.41092659       7.86727758       1.25345916       3.72671146       1.83898167
H        3.26447304       9.80644747       7.92495790      -2.65462821      -2.65989383       0.27687801
H        4.49866776      10.19814444       7.17696591       1.55070956      -0.92172512      -1.84116711
O        9.84216693      12.61383840       9.91090705       2.51313525       0.46401165       6.55667350
H        9.94662651      12.20383190       9.15566533       0.34003613      -2.75939553      -5.92449061
H        9.17222858      13.21757668       9.92403064      -2.90894633       2.12302174      -0.51805676
O        3.06414772      13.46205655      10.69202553      -1.10952880       0.31014191       6.42719273
H        2.18408897      13.86147951      11.00894976       1.47505742      -0.88596622      -0.81127052
H        3.03289451      13.46046902       9.81597266      -0.11939535       0.24238820      -5.77978891
O        8.63871212       1.18125583       6.22682823       3.54664681       2.20939025       1.26894235
H        9.47862219       0.67696582       6.28472022      -0.26083586       0.94919479       0.34298724
H        8.10503690       0.54706340       5.89836794      -3.45418993      -2.96127857      -1.68019033
O       -0.05814599       0.10389760       8.17615832       0.71453533      -1.48009678       0.78017560
H        0.33845222      -0.71489195       8.61929131      -0.75805897       1.02019324      -0.76701155
H        0.44721189       0.82115603       8.55197997       0.29542286       0.62493752      -0.09568104
O        1.82617468       4.25531503       5.56318709       1.57654401      -2.40183733      -2.70080009
H        1.52458600       3.31370769       5.36596274      -0.27217289       2.20609409       1.15329412
H        1.34674542       4.78423295       6.15136756      -1.53793632      -0.15315548       1.81903505
O        7.00011489       2.01431305       0.44676103      -0.53738117       0.13288233       1.81453048
H        7.63036494       1.31461378       0.44624720       1.58845336      -1.37352969       1.31427090
H        6.91449401       2.07578757      -0.46028151      -0.63066594       1.23558999      -3.06305826
O       10.28641120       8.99939930       0.78265839       3.99120601       3.43103458      -2.23929732
H        9.87428799       8.41868023       1.29544169      -3.25106763      -3.63091215       3.13289457
H        9.77411474       9.30372912       0.06120252      -1.04443875       0.22892333      -0.94723561
O        9.15534783       3.97959783       7.39705071       3.73942300       1.73318591      -2.99094396
H        8.76243375       3.20191900       7.04938129      -0.63607040      -1.42419071      -0.38421951
H        9.91048371       4.30572445       6.62990251      -2.90891548      -0.61970276       3.12335064
O        0.72731174       1.49023711       4.41089313      -5.88067900       2.56695359       1.74712129
H        0.72509978       0.61006195       4.69627311       1.07335852      -2.80504804       0.60914066
H       -0.37111198       1.59737433       4.84060090       4.89103047       0.17501603      -2.17308112
O        3.99281668       7.25740085       4.02418101      -4.73248081       0.29956696       0.99052271
H        3.99627750       7.27184738       3.09785631       1.67767065      -0.09944411      -2.52543541
H        2.92648227       7.25893546       3.95300138       2.94215470      -0.38953604       1.53021273
O        0.30371173       3.42053269      11.72307440       0.27463086      -1.99299076      -3.25083623
H       -0.34757047       4.06679036      11.83398995      -2.63713957       1.66297936      -0.28307282
H        0.73561453       3.53130536      12.50461623       2.45436497       0.01194637       3.54077441
O        0.91853522      11.48494466       9.26345873       2.28484185       5.32717187       0.98500512
H        1.80640462      11.27941223       9.53677876       0.05948865      -0.38214206      -0.01262103
H        0.46376932      10.75388634       9.09052362      -2.50264001      -4.91469491      -0.89056335
O       10.77378341      13.49915187      12.56536577      -4.78915307       1.84352738      -1.02677012
H       10.44066635      12.86588551      11.94871557      -1.26862353      -0.24227867      -1.19114590
H       11.57358184      13.13962888      12.62743826       5.72389312      -1.48798493       1.65571857
O        3.13478758      10.82426691       4.37930655       1.58532176      -0.21059445      -2.15285168
H        3.96450570      11.19035171       4.66061186       0.34017240       0.47464573       2.00864878
H        3.61394167      10.65582981       3.51421823      -2.01084965      -0.42306991       0.08175080
O        5.59747777       9.49804299       5.85471082      -0.94379033       3.82565266       2.15813273
H        5.10902604       8.79915865       5.57726320      -1.66289194      -3.37654775      -1.69600776
H        6.48691883       9.45115789       5.65547560       2.68705497      -0.49305792      -0.78032987
O        4.23368756       4.75268340      12.39163689       6.02553497       2.78712231      -2.34542732
H        3.54431253       5.18397870      12.70797903      -5.04806832       2.19992344       2.33000585
H        4.19417390       3.86878283      12.33612620      -0.94666483      -4.95833167      -0.12105629
O        1.84923093       4.19831206       0.61926963      -2.56382199      -0.60086685      -5.25188997
H        2.53150440       3.97677202       1.11846366       5.63313317      -2.80744431       2.64271886
H        1.53932359       4.74547601       1.25188511      -3.21376092       3.34262976       2.61282722
O        5.18328019       1.15245271       2.31437770      -0.19264146      -5.46986811       1.73586500
H        5.73532844       1.28383154       1.61557273       2.17028891       1.71317244      -2.88797641
H        4.68008029       1.80375344       2.66165024      -2.15042970       3.82095783       1.19819587
O       -0.08094930       4.83773805       7.63819677      -2.24870242       1.12874008      -4.00355244
H        0.14743406       5.76094061       7.52611703       0.50577048       0.08519711       1.27323609
H        0.18032031       4.30578796       8.32776759       1.61631384      -0.95163734       2.62247914
O       11.28708530       5.40951403       5.83592503      -0.03338681      -0.66872341       1.03206660
H       11.93183481       4.99452797       6.46606925      -0.17532714       0.37793882      -1.17874804
H       11.38657062       5.15524967       4.90622417       0.15867564      -0.00952645       0.45722702
O       12.49297433       7.70418516      13.71510909      -0.31938606      -3.85681443      -0.07905320
H       11.76625526       8.22272591      13.97345341      -1.98335941       1.37494380       0.65115249
H       13.21239074       8.24257006      13.59525046       2.56847568       2.15504226      -0.56116902
O       11.95252564       5.29642886      12.31448285       3.89045475       4.12467712       1.06499215
H       11.14674750       5.08947294      12.75227116      -0.89607580      -0.50249181       0.86278001
H       12.45810155       6.13284636      12.91001889      -2.72925706      -3.26019504      -2.57628155
O        1.74124173       2.83909394       8.99865846       1.78741562       0.48087089      -7.20808824
H        1.74355953       2.86717208       9.86889038       0.11821368       0.42067365       6.40153312
H        2.67288996       3.13457591       8.68475054      -2.12235840      -1.17306076       0.79173014
O        4.54927826       2.48204220       8.34882884      -0.24416072      -3.74831387      -1.22324870
H        4.68227637       1.60387262       7.73434827      -0.05319201       3.57009527       2.13894716
H        5.05920401       3.24838605       8.10403146       0.33654354       0.42476016      -1.06976926
O       13.69537078       9.68595382      12.04110991      -0.15955136      -0.02091747      -0.30360720
H       12.76491850       9.80300782      11.90997979      -1.00621672      -0.87953846      -0.28799340
H       13.86020948      10.60709259      12.20383190       1.18640479       0.55136283       0.69738093
O        4.36459542       1.85788827      12.40110916      -5.02959752       3.35773756      -0.07317566
H        4.53716011       1.24887938      11.77456335       0.40487884      -3.05960270      -3.93237402
H        5.03870368       1.75255554      12.94886049       4.43316324      -0.31145318       4.05370439
O        8.13567626       5.35691381       9.30880922      -2.14978693      -5.67668766      -3.14897940
H        8.68438011       4.59138490       8.54118476      -1.55430911       3.07298272       2.18755644
H        8.70374800       5.98033749       9.60488387       3.14831091       2.81322929       1.03431888
O        0.48317795       0.57009319      11.23051626       0.97315748       2.52212897       0.99644139
H        0.39026925       1.60232742      11.24676200      -0.42182859      -2.30122492       0.12179574
H       -0.15998720       0.17592391      10.67202263      -0.87775411       0.05990362      -0.84131130
O        3.82905221      10.58566091       1.40669590      -2.44805549       0.02468516      -0.64232847
H        3.33901294      11.44827268       1.10543002       1.14357021      -2.31578250       0.65826931
H        3.19607160       9.77443225       1.32064640       1.53032586       2.40832680      -0.10685711
O       10.11659823       7.17050995      10.08151378      -0.42270585       0.34709998      -1.59248485
H        9.75972112       7.65476001      10.78066271      -2.03507972       2.82082948       0.90895703
H       10.59063517       6.70430483      10.71356304       2.76289738      -2.87328513       0.87530128
O       10.02182259       4.08791511      -0.11174159       0.85728299       0.40030177      -3.00505417
H        9.83555221       4.08183487       0.75735842       0.15636062       1.22952733       5.56623306
H        9.39490635       3.41971776      -0.23339149      -1.52019571      -1.79913985      -2.13492595
O        6.98572127      10.02827855       0.95479973      -5.33689065       1.30151823      -0.47987999
H        7.19924427       9.43988641       0.24739405       0.39186340      -0.48945272      -0.72141046
H        5.89159447      10.23555727       0.72491457       4.58773798      -0.76866734       1.29293588
192
Lattice="12.88509993 0.0 0.0 -5.3e-07 12.88509993 0.0 -5.3e-07 -5.3e-07 12.88509993" Properties=species:S:1:pos:R:3:forces:R:3 energy=-30012.02348054 cutoff=-1.0 nneightol=1.2 pbc="T T T"
O        0.95908078      11.95628280       0.65987340      -7.80478991      -0.13564061      -0.32728860
H        0.40083851      12.59970937       1.18231418       1.31175636      -0.08949599      -0.04576872
H        1.82543912      11.94548759       0.69387832       6.70132377       0.70732082       0.95443470
O        5.64923131       6.45622655      11.22792329      -1.87859209      -0.59313812       2.62427377
H        4.79590130       5.96573219      11.16897295       0.17379527       0.09125051       0.64435449
H        5.81121245       6.59889273      10.33282004       0.99928503       0.95104084      -2.80904354
O       10.05822998       1.12144293       4.31439767     -10.73389369       0.17012374      -1.77988229
H       10.64693963       1.28763632       4.87894508       7.16849325       3.06068257       8.24521991
H       10.57084395       0.83735943       3.68638074       3.67571620      -2.89053209      -6.59657702
O       12.39862203       3.16012988       3.23361672      -2.65224223      -0.44412005      -2.11886684
H       12.96785796       3.46303091       3.89100827       1.45735794       1.07946231       1.61522369
H       11.53759779       3.66783308       3.19891857       1.02419902      -0.70127358       0.43518958
O       11.78493522       8.70020251       7.21199744       1.41859599       1.70237895       1.10918941
H       11.04345211       8.10456064       7.01133344       0.10383452       0.48397112       1.48861228
H       11.80462061       9.12984149       8.15282160      -1.09132539      -1.82056743      -2.95462455
O        3.88756333      -0.40770776       3.97530091      -2.47838422       1.31160724      -0.82304618
H        3.16204550       0.30656082       3.83492607       2.12186989      -1.94452032       0.63424492
H        4.67364549       0.03881303       4.25583363       0.35781891       0.46354319       0.25751760
O       11.05990952       8.79434314       9.95504043      -3.63809581      20.88687228       3.31049097
H       11.07340354       8.02941748       9.94101723       1.06270386     -21.57366541      -1.12196780
H       10.25323179       8.87647144      10.63662067       2.59474207       0.64773807      -1.83486276
O        4.14554251       2.75044088      12.88239584      -0.74807280      -0.96455971      -1.01409973
H        3.36013241       3.06947124      12.40883515       0.32093283       0.58942544       0.35533985
H        4.13285284       1.83676880      12.49424435       0.24424299       0.27539499       0.88345682
O        3.33899178       9.48634817      10.19973197       6.77259476       0.23649780       1.99193661
H        4.02233418       9.08512601      11.10891133      -2.94745632       1.78521990      -2.85974055
H        2.60404401       9.00903033      10.38801322      -4.10717305      -1.96882239       0.87097669
O        9.92112017       4.42432365       3.15475873      -2.59221211      -0.78554406       1.01192457
H        9.95546377       5.02379147       3.95836724      -0.28654176      -1.21735059      -1.22782526
H        8.99760010       3.87507475       3.14183093       3.09961421       2.12922839       0.24387481
O        6.18380612       5.20361118       2.99425928      -2.40665044      -1.51716181      -0.36943773
H        5.25572984       4.92190369       2.56650947       2.31377190       1.32866908       1.50921710
H        6.30059553       4.46610748       3.62222329       0.38442469       1.02477495      -0.37820827
O       11.77096494       2.80732743       8.95029166       5.64969108     -16.91996835      -6.25523734
H       12.52260825       2.08131747       9.31537102      -2.94517318       3.71817540      -1.07469549
H       11.59305556       3.50065012       9.30727460      -2.53892342      12.80368331       7.48206501
O        3.16136815      11.92373840       9.43750512      -0.39265736       2.32241081      -0.77699257
H        3.96722038      12.20653070       9.01268165       0.27150234       0.15017095      -0.26466424
H        3.32275133      11.04128249       9.72013866      -0.03778442      -2.01261342       0.63957738
O        5.59700151       6.67255419       6.28498481       0.38060660      -1.08698022      -2.99165358
H        6.04452668       7.37508986       5.76591488      -0.27095110      -0.04914150       0.65195982
H        5.54572424       5.98832806       5.50841725       0.01937224       1.25117602       2.53820865
O        8.74089624      12.69496127       6.25154081       0.25271581       1.09161335      -0.18835235
H        8.54081433      11.80483228       5.90588225       0.06728783      -0.00021083      -0.00242815
H        9.19482445      13.16598190       5.50619471      -0.49941266      -0.69092746       0.84237573
O        0.95119603       8.41195968      10.63281060       3.81585676      -0.64911104      -1.19057512
H        0.16404441       8.60727899      10.24545288      -3.51628722       0.66689793      -1.79940725
H        0.76442294       8.37661065      11.52563839      -0.60386990      -0.28214877       3.03790773
O        1.27813759       1.20052317      11.46393632       0.73251249       5.79151314      -3.73376657
H        1.14403879       0.49072084      11.94733971      -0.79253232      -5.43505537       3.33318867
H        1.48210895       0.94975138      10.55851412      -0.13306797      -0.05894871       0.19156417
O       11.74434733       2.47291919       6.31525374      -0.72113278       0.29836832      -1.89554594
H       11.51436691       2.25930093       7.25311451      -0.04093814       1.68707060      -0.79706775
H       11.43239736       3.34333103       5.86344224       0.42078935      -1.75898436       2.30341550
O        9.79279470       6.93634903       7.34471509      -2.06963535       0.01217675       0.48306044
H        8.98643446       7.51548057       7.29343781       1.30626963      -0.36562581       0.01040783
H        9.57689039       6.36573725       8.10503690       0.35199330       0.17670782      -0.41419447
O        5.98261295       0.17066494       9.74278745       2.97103333       2.56465502       0.29663899
H        7.03033091       0.62561446       9.53021696      -4.54064051      -1.52552304       0.79139590
H        5.41686959       0.79259633      10.32086063       2.26945636      -1.04448502      -1.58630906
O        8.33353562       9.41221045       7.65460126      -1.01363178      -1.66176066      -3.79664547
H        8.35877737      10.10146376       8.25389445       0.00972083       2.10510629       1.99240455
H        8.16023008       9.81724268       6.70943785       0.94786810      -1.08529872       2.42833512
O        4.06163617      12.94515625      11.96728969      -0.46939914      -0.16037411      14.43818513
H        3.99754752      12.02190077      12.41693156       0.32242253       2.60975218      -0.80903881
H        4.09250837      12.81720120      11.16765000      -0.03966544      -2.44601403     -13.17921866
O        3.38669710       9.58990815       4.10745234       1.34602403      -0.11002265      -0.35393912
H        2.46321937       9.54767981       4.22345327      -1.79719096      -0.32873510       0.32171034
H        3.57283519      10.52591680       4.21813504       0.18703903       0.36678949       0.04829766
O        7.93220762      10.92264096      10.26757249      -2.11493305       1.94176924       0.06830856
H        8.75158562      11.45091856      10.37245541      -0.54978417      -0.21192576       0.21945293
H        7.15278251      11.62147238      10.35578633       2.15703230      -2.05560741      -0.38244082
O        2.84288285       7.46012864       7.96903836      -3.55896239       0.79759225       2.44267160
H        3.62344040       7.55924353       7.55273465       4.31379206      -0.05633596      -2.42631938
H        2.80482972       8.28966683       8.48678534      -0.30747825      -0.59340551       0.01860707
O       11.23019875       1.75447116      12.67384710      -8.08961674       0.30758778       3.18634267
H       10.10352755       2.28129354      12.53181593       5.43531248      -2.10946174      -0.36495424
H       11.87627121       1.88349515      12.06460538       2.16826802       1.42901924      -3.34588992
O        3.02705769       5.57318854      11.27872430       0.45722034      -1.55902451      -4.62711700
H        2.65855984       6.04209247      11.95480110      -1.81109548       1.85866604       2.63881593
H        2.41449273       5.70987501      10.46643728       1.23492151      -0.56474799       1.96251804
O        2.68868590       7.31693328       1.52514693       1.14816220      -1.70551055       1.65581627
H        2.80430054       7.79599741       2.35555297      -0.12811242       0.54289876      -0.17231895
H        3.14267761       6.46072456       1.83422875      -0.92573090       1.11524693      -1.37131340
O        3.27688225       3.12591328       6.60233238      -2.70509383       0.05308866       0.96564985
H        4.01749221       3.17247558       6.02267166       1.65641791      -0.43573980       0.09715788
H        3.42807347       2.75747365       7.49748855       1.04097804       0.55850021      -0.98438291
O       13.01643642       8.52409233       4.42255091      -1.15778841       2.66274262      -0.41640356
H       12.78179925       9.41729055       3.82128918       0.97810942      -2.92419297       2.81634547
H       12.60590074       8.66622933       5.33955680       0.44380175       0.20760580      -1.61898264